# vtk DataFile Version 1.0
Unstructured Grid Example
ASCII

DATASET UNSTRUCTURED_GRID
POINTS	648float
	-7.341772e+01	5.232068e+01	0.000000e+00
	-7.341772e+01	4.952532e+01	0.000000e+00
	-7.038005e+01	4.950459e+01	0.000000e+00
	-7.035386e+01	5.227636e+01	0.000000e+00
	-7.341772e+01	4.672996e+01	0.000000e+00
	-7.039665e+01	4.672223e+01	0.000000e+00
	-7.341772e+01	4.393460e+01	0.000000e+00
	-7.041195e+01	4.393406e+01	0.000000e+00
	-7.341772e+01	4.113924e+01	0.000000e+00
	-7.042611e+01	4.114191e+01	0.000000e+00
	-7.341772e+01	3.834388e+01	0.000000e+00
	-7.043949e+01	3.834582e+01	0.000000e+00
	-7.341772e+01	3.554852e+01	0.000000e+00
	-7.045288e+01	3.554408e+01	0.000000e+00
	-7.341772e+01	3.275316e+01	0.000000e+00
	-7.046717e+01	3.273486e+01	0.000000e+00
	-7.341772e+01	2.995781e+01	0.000000e+00
	-7.049121e+01	2.991351e+01	0.000000e+00
	-6.756066e+01	2.988014e+01	0.000000e+00
	-6.752523e+01	3.270362e+01	0.000000e+00
	-6.463000e+01	2.983182e+01	0.000000e+00
	-6.458207e+01	3.266313e+01	0.000000e+00
	-6.169952e+01	2.976726e+01	0.000000e+00
	-6.163670e+01	3.260783e+01	0.000000e+00
	-5.876856e+01	2.968546e+01	0.000000e+00
	-5.868900e+01	3.253522e+01	0.000000e+00
	-5.583683e+01	2.958653e+01	0.000000e+00
	-5.573951e+01	3.244420e+01	0.000000e+00
	-5.290419e+01	2.947068e+01	0.000000e+00
	-5.278900e+01	3.233360e+01	0.000000e+00
	-4.997059e+01	2.933819e+01	0.000000e+00
	-4.983822e+01	3.220393e+01	0.000000e+00
	-4.703603e+01	2.918932e+01	0.000000e+00
	-4.688734e+01	3.205591e+01	0.000000e+00
	-4.410049e+01	2.902434e+01	0.000000e+00
	-4.393619e+01	3.189082e+01	0.000000e+00
	-4.116399e+01	2.884351e+01	0.000000e+00
	-4.098456e+01	3.170956e+01	0.000000e+00
	-3.822652e+01	2.864709e+01	0.000000e+00
	-3.803232e+01	3.151267e+01	0.000000e+00
	-3.528808e+01	2.843533e+01	0.000000e+00
	-3.507940e+01	3.130049e+01	0.000000e+00
	-3.234866e+01	2.820851e+01	0.000000e+00
	-3.212579e+01	3.107327e+01	0.000000e+00
	-2.940828e+01	2.796688e+01	0.000000e+00
	-2.917145e+01	3.083127e+01	0.000000e+00
	-2.646692e+01	2.771069e+01	0.000000e+00
	-2.621640e+01	3.057473e+01	0.000000e+00
	-2.352460e+01	2.744022e+01	0.000000e+00
	-2.326062e+01	3.030390e+01	0.000000e+00
	-2.058131e+01	2.715572e+01	0.000000e+00
	-2.030413e+01	3.001904e+01	0.000000e+00
	-1.763704e+01	2.685744e+01	0.000000e+00
	-1.734690e+01	2.972041e+01	0.000000e+00
	-1.469181e+01	2.654566e+01	0.000000e+00
	-1.438896e+01	2.940828e+01	0.000000e+00
	-1.174561e+01	2.622062e+01	0.000000e+00
	-1.143029e+01	2.908289e+01	0.000000e+00
	-8.798433e+00	2.588259e+01	0.000000e+00
	-8.470900e+00	2.874451e+01	0.000000e+00
	-5.850289e+00	2.553183e+01	0.000000e+00
	-5.510786e+00	2.839340e+01	0.000000e+00
	-2.901176e+00	2.516860e+01	0.000000e+00
	-2.549949e+00	2.802982e+01	0.000000e+00
	4.890736e-02	2.479316e+01	0.000000e+00
	4.116115e-01	2.765403e+01	0.000000e+00
	2.999961e+00	2.440577e+01	0.000000e+00
	3.373895e+00	2.726629e+01	0.000000e+00
	5.951984e+00	2.400668e+01	0.000000e+00
	6.336902e+00	2.686685e+01	0.000000e+00
	8.904977e+00	2.359616e+01	0.000000e+00
	9.300632e+00	2.645598e+01	0.000000e+00
	1.185894e+01	2.317447e+01	0.000000e+00
	1.226508e+01	2.603394e+01	0.000000e+00
	1.481387e+01	2.274187e+01	0.000000e+00
	1.523026e+01	2.560099e+01	0.000000e+00
	1.776978e+01	2.229861e+01	0.000000e+00
	1.819616e+01	2.515738e+01	0.000000e+00
	2.072665e+01	2.184496e+01	0.000000e+00
	2.116278e+01	2.470339e+01	0.000000e+00
	2.368449e+01	2.138118e+01	0.000000e+00
	2.413013e+01	2.423925e+01	0.000000e+00
	2.664331e+01	2.090752e+01	0.000000e+00
	2.709820e+01	2.376525e+01	0.000000e+00
	2.960309e+01	2.042426e+01	0.000000e+00
	3.006699e+01	2.328163e+01	0.000000e+00
	3.256384e+01	1.993163e+01	0.000000e+00
	3.303650e+01	2.278866e+01	0.000000e+00
	3.552556e+01	1.942992e+01	0.000000e+00
	3.600674e+01	2.228659e+01	0.000000e+00
	3.848826e+01	1.891937e+01	0.000000e+00
	3.897770e+01	2.177570e+01	0.000000e+00
	4.145192e+01	1.840024e+01	0.000000e+00
	4.194939e+01	2.125622e+01	0.000000e+00
	4.441655e+01	1.787280e+01	0.000000e+00
	4.492180e+01	2.072844e+01	0.000000e+00
	4.738216e+01	1.733731e+01	0.000000e+00
	4.789493e+01	2.019259e+01	0.000000e+00
	5.034873e+01	1.679402e+01	0.000000e+00
	5.086878e+01	1.964896e+01	0.000000e+00
	5.331627e+01	1.624320e+01	0.000000e+00
	5.384336e+01	1.909779e+01	0.000000e+00
	5.628478e+01	1.568510e+01	0.000000e+00
	5.681866e+01	1.853934e+01	0.000000e+00
	5.925427e+01	1.511999e+01	0.000000e+00
	5.979468e+01	1.797388e+01	0.000000e+00
	6.222472e+01	1.454812e+01	0.000000e+00
	6.277143e+01	1.740166e+01	0.000000e+00
	6.519614e+01	1.396975e+01	0.000000e+00
	6.574890e+01	1.682295e+01	0.000000e+00
	6.816853e+01	1.338515e+01	0.000000e+00
	6.872709e+01	1.623800e+01	0.000000e+00
	7.114189e+01	1.279458e+01	0.000000e+00
	7.170601e+01	1.564708e+01	0.000000e+00
	7.411623e+01	1.219829e+01	0.000000e+00
	7.468564e+01	1.505044e+01	0.000000e+00
	7.709153e+01	1.159654e+01	0.000000e+00
	7.766601e+01	1.444835e+01	0.000000e+00
	8.006780e+01	1.098959e+01	0.000000e+00
	8.064709e+01	1.384105e+01	0.000000e+00
	8.304504e+01	1.037771e+01	0.000000e+00
	8.362890e+01	1.322883e+01	0.000000e+00
	8.602326e+01	9.761153e+00	0.000000e+00
	8.661143e+01	1.261192e+01	0.000000e+00
	8.900244e+01	9.140178e+00	0.000000e+00
	8.959469e+01	1.199060e+01	0.000000e+00
	9.198259e+01	8.515046e+00	0.000000e+00
	9.257866e+01	1.136512e+01	0.000000e+00
	9.496371e+01	7.886016e+00	0.000000e+00
	9.556336e+01	1.073575e+01	0.000000e+00
	9.794579e+01	7.253347e+00	0.000000e+00
	9.854879e+01	1.010273e+01	0.000000e+00
	1.009288e+02	6.617296e+00	0.000000e+00
	1.015349e+02	9.466334e+00	0.000000e+00
	1.039129e+02	5.978119e+00	0.000000e+00
	1.045218e+02	8.826810e+00	0.000000e+00
	1.068979e+02	5.336071e+00	0.000000e+00
	1.075094e+02	8.184404e+00	0.000000e+00
	1.098838e+02	4.691404e+00	0.000000e+00
	1.104977e+02	7.539339e+00	0.000000e+00
	1.128708e+02	4.044370e+00	0.000000e+00
	1.134867e+02	6.891717e+00	0.000000e+00
	1.158588e+02	3.395227e+00	0.000000e+00
	1.164766e+02	6.242148e+00	0.000000e+00
	1.188478e+02	2.744253e+00	0.000000e+00
	1.194668e+02	5.589351e+00	0.000000e+00
	1.218380e+02	2.091770e+00	0.000000e+00
	1.224571e+02	4.931839e+00	0.000000e+00
	1.248295e+02	1.438178e+00	0.000000e+00
	1.254475e+02	4.270052e+00	0.000000e+00
	1.278222e+02	7.839887e-01	0.000000e+00
	1.284384e+02	3.606236e+00	0.000000e+00
	1.308162e+02	1.298116e-01	0.000000e+00
	1.314300e+02	2.942539e+00	0.000000e+00
	1.338110e+02	-5.237820e-01	0.000000e+00
	1.344225e+02	2.280106e+00	0.000000e+00
	1.368062e+02	-1.176677e+00	0.000000e+00
	1.374154e+02	1.618682e+00	0.000000e+00
	1.380239e+02	4.413780e+00	0.000000e+00
	1.350327e+02	5.082312e+00	0.000000e+00
	1.386318e+02	7.208051e+00	0.000000e+00
	1.356411e+02	7.880108e+00	0.000000e+00
	1.392395e+02	1.000096e+01	0.000000e+00
	1.362481e+02	1.067278e+01	0.000000e+00
	1.398477e+02	1.279197e+01	0.000000e+00
	1.368546e+02	1.346157e+01	0.000000e+00
	1.404574e+02	1.558018e+01	0.000000e+00
	1.374624e+02	1.624870e+01	0.000000e+00
	1.410710e+02	1.836373e+01	0.000000e+00
	1.380741e+02	1.903674e+01	0.000000e+00
	1.416997e+02	2.113913e+01	0.000000e+00
	1.386957e+02	2.182804e+01	0.000000e+00
	1.356936e+02	2.248925e+01	0.000000e+00
	1.350802e+02	1.970422e+01	0.000000e+00
	1.326929e+02	2.314681e+01	0.000000e+00
	1.320843e+02	2.036666e+01	0.000000e+00
	1.296927e+02	2.380199e+01	0.000000e+00
	1.290872e+02	2.102620e+01	0.000000e+00
	1.266923e+02	2.445569e+01	0.000000e+00
	1.260891e+02	2.168290e+01	0.000000e+00
	1.236914e+02	2.510796e+01	0.000000e+00
	1.230901e+02	2.233720e+01	0.000000e+00
	1.206897e+02	2.575867e+01	0.000000e+00
	1.200902e+02	2.298890e+01	0.000000e+00
	1.176872e+02	2.640759e+01	0.000000e+00
	1.170895e+02	2.363845e+01	0.000000e+00
	1.146837e+02	2.705446e+01	0.000000e+00
	1.140881e+02	2.428587e+01	0.000000e+00
	1.116794e+02	2.769903e+01	0.000000e+00
	1.110860e+02	2.493090e+01	0.000000e+00
	1.086740e+02	2.834103e+01	0.000000e+00
	1.080832e+02	2.557331e+01	0.000000e+00
	1.056677e+02	2.898018e+01	0.000000e+00
	1.050796e+02	2.621284e+01	0.000000e+00
	1.026604e+02	2.961622e+01	0.000000e+00
	1.020753e+02	2.684923e+01	0.000000e+00
	9.965208e+01	3.024888e+01	0.000000e+00
	9.907026e+01	2.748224e+01	0.000000e+00
	9.664283e+01	3.087791e+01	0.000000e+00
	9.606450e+01	2.811161e+01	0.000000e+00
	9.363261e+01	3.150304e+01	0.000000e+00
	9.305801e+01	2.873709e+01	0.000000e+00
	9.062142e+01	3.212402e+01	0.000000e+00
	9.005078e+01	2.935840e+01	0.000000e+00
	8.760926e+01	3.274058e+01	0.000000e+00
	8.704283e+01	2.997530e+01	0.000000e+00
	8.459613e+01	3.335246e+01	0.000000e+00
	8.403415e+01	3.058752e+01	0.000000e+00
	8.158203e+01	3.395941e+01	0.000000e+00
	8.102473e+01	3.119480e+01	0.000000e+00
	7.856696e+01	3.456115e+01	0.000000e+00
	7.801459e+01	3.179689e+01	0.000000e+00
	7.555092e+01	3.515745e+01	0.000000e+00
	7.500372e+01	3.239352e+01	0.000000e+00
	7.253391e+01	3.574802e+01	0.000000e+00
	7.199212e+01	3.298443e+01	0.000000e+00
	6.951593e+01	3.633262e+01	0.000000e+00
	6.897979e+01	3.356937e+01	0.000000e+00
	6.649698e+01	3.691099e+01	0.000000e+00
	6.596673e+01	3.414808e+01	0.000000e+00
	6.347706e+01	3.748286e+01	0.000000e+00
	6.295294e+01	3.472028e+01	0.000000e+00
	6.045617e+01	3.804797e+01	0.000000e+00
	5.993842e+01	3.528574e+01	0.000000e+00
	5.743431e+01	3.860607e+01	0.000000e+00
	5.692317e+01	3.584417e+01	0.000000e+00
	5.441148e+01	3.915689e+01	0.000000e+00
	5.390719e+01	3.639534e+01	0.000000e+00
	5.138768e+01	3.970018e+01	0.000000e+00
	5.089048e+01	3.693896e+01	0.000000e+00
	4.836291e+01	4.023567e+01	0.000000e+00
	4.787304e+01	3.747480e+01	0.000000e+00
	4.533717e+01	4.076311e+01	0.000000e+00
	4.485488e+01	3.800257e+01	0.000000e+00
	4.231046e+01	4.128224e+01	0.000000e+00
	4.183598e+01	3.852204e+01	0.000000e+00
	3.928278e+01	4.179279e+01	0.000000e+00
	3.881635e+01	3.903293e+01	0.000000e+00
	3.625413e+01	4.229450e+01	0.000000e+00
[...]
POINT_DATA	648
SCALARS scalars float
 LOOKUP_TABLE default
 	0.000000e+00
	1.000000e+00
	2.000000e+00
	3.000000e+00
	4.000000e+00
	5.000000e+00
	6.000000e+00
	7.000000e+00
	8.000000e+00
	9.000000e+00
	1.000000e+01
	1.100000e+01
	1.200000e+01
	1.300000e+01
	1.400000e+01
	1.500000e+01
	1.600000e+01
	1.700000e+01
	1.800000e+01
	1.900000e+01
	2.000000e+01
	2.100000e+01
	2.200000e+01
	2.300000e+01
	2.400000e+01
	2.500000e+01
	2.600000e+01
	2.700000e+01
	2.800000e+01
	2.900000e+01
	3.000000e+01
	3.100000e+01
	3.200000e+01
	3.300000e+01
	3.400000e+01
	3.500000e+01
	3.600000e+01
	3.700000e+01
	3.800000e+01
	3.900000e+01
	4.000000e+01
	4.100000e+01
	4.200000e+01
	4.300000e+01
	4.400000e+01
	4.500000e+01
	4.600000e+01
	4.700000e+01
	4.800000e+01
	4.900000e+01
	5.000000e+01
	5.100000e+01
	5.200000e+01
	5.300000e+01
	5.400000e+01
	5.500000e+01
	5.600000e+01
	5.700000e+01
	5.800000e+01
	5.900000e+01
	6.000000e+01
	6.100000e+01
	6.200000e+01
	6.300000e+01
	6.400000e+01
	6.500000e+01
	6.600000e+01
	6.700000e+01
	6.800000e+01
	6.900000e+01
	7.000000e+01
	7.100000e+01
	7.200000e+01
	7.300000e+01
	7.400000e+01
	7.500000e+01
	7.600000e+01
	7.700000e+01
	7.800000e+01
	7.900000e+01
	8.000000e+01
	8.100000e+01
	8.200000e+01
	8.300000e+01
	8.400000e+01
	8.500000e+01
	8.600000e+01
	8.700000e+01
	8.800000e+01
	8.900000e+01
	9.000000e+01
	9.100000e+01
	9.200000e+01
	9.300000e+01
	9.400000e+01
	9.500000e+01
	9.600000e+01
	9.700000e+01
	9.800000e+01
	9.900000e+01
	1.000000e+02
	1.010000e+02
	1.020000e+02
	1.030000e+02
	1.040000e+02
	1.050000e+02
	1.060000e+02
	1.070000e+02
	1.080000e+02
	1.090000e+02
	1.100000e+02
	1.110000e+02
	1.120000e+02
	1.130000e+02
	1.140000e+02
	1.150000e+02
	1.160000e+02
	1.170000e+02
	1.180000e+02
	1.190000e+02
	1.200000e+02
	1.210000e+02
	1.220000e+02
	1.230000e+02
	1.240000e+02
	1.250000e+02
	1.260000e+02
	1.270000e+02
	1.280000e+02
	1.290000e+02
	1.300000e+02
	1.310000e+02
	1.320000e+02
	1.330000e+02
	1.340000e+02
	1.350000e+02
	1.360000e+02
	1.370000e+02
	1.380000e+02
	1.390000e+02
	1.400000e+02
	1.410000e+02
	1.420000e+02
	1.430000e+02
	1.440000e+02
	1.450000e+02
	1.460000e+02
	1.470000e+02
	1.480000e+02
	1.490000e+02
	1.500000e+02
	1.510000e+02
	1.520000e+02
	1.530000e+02
	1.540000e+02
	1.550000e+02
	1.560000e+02
	1.570000e+02
	1.580000e+02
	1.590000e+02
	1.600000e+02
	1.610000e+02
	1.620000e+02
	1.630000e+02
	1.640000e+02
	1.650000e+02
	1.660000e+02
	1.670000e+02
	1.680000e+02
	1.690000e+02
	1.700000e+02
	1.710000e+02
	1.720000e+02
	1.730000e+02
	1.740000e+02
	1.750000e+02
	1.760000e+02
	1.770000e+02
	1.780000e+02
	1.790000e+02
	1.800000e+02
	1.810000e+02
	1.820000e+02
	1.830000e+02
	1.840000e+02
	1.850000e+02
	1.860000e+02
	1.870000e+02
	1.880000e+02
	1.890000e+02
	1.900000e+02
	1.910000e+02
	1.920000e+02
	1.930000e+02
	1.940000e+02
	1.950000e+02
	1.960000e+02
	1.970000e+02
	1.980000e+02
	1.990000e+02
	2.000000e+02
	2.010000e+02
	2.020000e+02
	2.030000e+02
	2.040000e+02
	2.050000e+02
	2.060000e+02
	2.070000e+02
	2.080000e+02
	2.090000e+02
	2.100000e+02
	2.110000e+02
	2.120000e+02
	2.130000e+02
	2.140000e+02
	2.150000e+02
	2.160000e+02
	2.170000e+02
	2.180000e+02
	2.190000e+02
	2.200000e+02
	2.210000e+02
	2.220000e+02
	2.230000e+02
	2.240000e+02
	2.250000e+02
	2.260000e+02
	2.270000e+02
	2.280000e+02
	2.290000e+02
	2.300000e+02
	2.310000e+02
	2.320000e+02
	2.330000e+02
	2.340000e+02
	2.350000e+02
	2.360000e+02
	2.370000e+02
	2.380000e+02
	2.390000e+02
	2.400000e+02
	2.410000e+02
	2.420000e+02
	2.430000e+02
	2.440000e+02
	2.450000e+02
	2.460000e+02
	2.470000e+02
	2.480000e+02
	2.490000e+02
	2.500000e+02
	2.510000e+02
	2.520000e+02
	2.530000e+02
	2.540000e+02
	2.550000e+02
	2.560000e+02
	2.570000e+02
	2.580000e+02
	2.590000e+02
	2.600000e+02
	2.610000e+02
	2.620000e+02
	2.630000e+02
	2.640000e+02
	2.650000e+02
	2.660000e+02
	2.670000e+02
	2.680000e+02
	2.690000e+02
	2.700000e+02
	2.710000e+02
	2.720000e+02
	2.730000e+02
	2.740000e+02
	2.750000e+02
	2.760000e+02
	2.770000e+02
	2.780000e+02
	2.790000e+02
	2.800000e+02
	2.810000e+02
	2.820000e+02
	2.830000e+02
	2.840000e+02
	2.850000e+02
	2.860000e+02
	2.870000e+02
	2.880000e+02
	2.890000e+02
	2.900000e+02
	2.910000e+02
	2.920000e+02
	2.930000e+02
	2.940000e+02
	2.950000e+02
	2.960000e+02
	2.970000e+02
	2.980000e+02
	2.990000e+02
	3.000000e+02
	3.010000e+02
	3.020000e+02
	3.030000e+02
	3.040000e+02
	3.050000e+02
	3.060000e+02
	3.070000e+02
	3.080000e+02
	3.090000e+02
	3.100000e+02
	3.110000e+02
	3.120000e+02
	3.130000e+02
	3.140000e+02
	3.150000e+02
	3.160000e+02
	3.170000e+02
	3.180000e+02
	3.190000e+02
	3.200000e+02
	3.210000e+02
	3.220000e+02
	3.230000e+02
	3.240000e+02
	3.250000e+02
	3.260000e+02
	3.270000e+02
	3.280000e+02
	3.290000e+02
	3.300000e+02
	3.310000e+02
	3.320000e+02
	3.330000e+02
	3.340000e+02
	3.350000e+02
	3.360000e+02
	3.370000e+02
	3.380000e+02
	3.390000e+02
	3.400000e+02
	3.410000e+02
	3.420000e+02
	3.430000e+02
	3.440000e+02
	3.450000e+02
	3.460000e+02
	3.470000e+02
	3.480000e+02
	3.490000e+02
	3.500000e+02
	3.510000e+02
	3.520000e+02
	3.530000e+02
	3.540000e+02
	3.550000e+02
	3.560000e+02
	3.570000e+02
	3.580000e+02
	3.590000e+02
	3.600000e+02
	3.610000e+02
	3.620000e+02
	3.630000e+02
	3.640000e+02
	3.650000e+02
	3.660000e+02
	3.670000e+02
	3.680000e+02
	3.690000e+02
	3.700000e+02
	3.710000e+02
	3.720000e+02
	3.730000e+02
	3.740000e+02
	3.750000e+02
	3.760000e+02
	3.770000e+02
	3.780000e+02
	3.790000e+02
	3.800000e+02
	3.810000e+02
	3.820000e+02
	3.830000e+02
	3.840000e+02
	3.850000e+02
	3.860000e+02
	3.870000e+02
	3.880000e+02
	3.890000e+02
	3.900000e+02
	3.910000e+02
	3.920000e+02
	3.930000e+02
	3.940000e+02
	3.950000e+02
	3.960000e+02
	3.970000e+02
	3.980000e+02
	3.990000e+02
	4.000000e+02
	4.010000e+02
	4.020000e+02
	4.030000e+02
	4.040000e+02
	4.050000e+02
	4.060000e+02
	4.070000e+02
	4.080000e+02
	4.090000e+02
	4.100000e+02
	4.110000e+02
	4.120000e+02
	4.130000e+02
	4.140000e+02
	4.150000e+02
	4.160000e+02
	4.170000e+02
	4.180000e+02
	4.190000e+02
	4.200000e+02
	4.210000e+02
	4.220000e+02
	4.230000e+02
	4.240000e+02
	4.250000e+02
	4.260000e+02
	4.270000e+02
	4.280000e+02
	4.290000e+02
	4.300000e+02
	4.310000e+02
	4.320000e+02
	4.330000e+02
	4.340000e+02
	4.350000e+02
	4.360000e+02
	4.370000e+02
	4.380000e+02
	4.390000e+02
	4.400000e+02
	4.410000e+02
	4.420000e+02
	4.430000e+02
	4.440000e+02
	4.450000e+02
	4.460000e+02
	4.470000e+02
	4.480000e+02
	4.490000e+02
	4.500000e+02
	4.510000e+02
	4.520000e+02
	4.530000e+02
	4.540000e+02
	4.550000e+02
	4.560000e+02
	4.570000e+02
	4.580000e+02
	4.590000e+02
	4.600000e+02
	4.610000e+02
	4.620000e+02
	4.630000e+02
	4.640000e+02
	4.650000e+02
	4.660000e+02
	4.670000e+02
	4.680000e+02
	4.690000e+02
	4.700000e+02
	4.710000e+02
	4.720000e+02
	4.730000e+02
	4.740000e+02
	4.750000e+02
	4.760000e+02
	4.770000e+02
	4.780000e+02
	4.790000e+02
	4.800000e+02
	4.810000e+02
	4.820000e+02
	4.830000e+02
	4.840000e+02
	4.850000e+02
	4.860000e+02
	4.870000e+02
	4.880000e+02
	4.890000e+02
	4.900000e+02
	4.910000e+02
	4.920000e+02
	4.930000e+02
	4.940000e+02
	4.950000e+02
	4.960000e+02
	4.970000e+02
	4.980000e+02
	4.990000e+02
	5.000000e+02
	5.010000e+02
	5.020000e+02
	5.030000e+02
	5.040000e+02
	5.050000e+02
	5.060000e+02
	5.070000e+02
	5.080000e+02
	5.090000e+02
	5.100000e+02
	5.110000e+02
	5.120000e+02
	5.130000e+02
	5.140000e+02
	5.150000e+02
	5.160000e+02
	5.170000e+02
	5.180000e+02
	5.190000e+02
	5.200000e+02
	5.210000e+02
	5.220000e+02
	5.230000e+02
	5.240000e+02
	5.250000e+02
	5.260000e+02
	5.270000e+02
	5.280000e+02
	5.290000e+02
	5.300000e+02
	5.310000e+02
	5.320000e+02
	5.330000e+02
	5.340000e+02
	5.350000e+02
	5.360000e+02
	5.370000e+02
	5.380000e+02
	5.390000e+02
	5.400000e+02
	5.410000e+02
	5.420000e+02
	5.430000e+02
	5.440000e+02
	5.450000e+02
	5.460000e+02
	5.470000e+02
	5.480000e+02
	5.490000e+02
	5.500000e+02
	5.510000e+02
	5.520000e+02
	5.530000e+02
	5.540000e+02
	5.550000e+02
	5.560000e+02
	5.570000e+02
	5.580000e+02
	5.590000e+02
	5.600000e+02
	5.610000e+02
	5.620000e+02
	5.630000e+02
	5.640000e+02
	5.650000e+02
	5.660000e+02
	5.670000e+02
	5.680000e+02
	5.690000e+02
	5.700000e+02
	5.710000e+02
	5.720000e+02
	5.730000e+02
	5.740000e+02
	5.750000e+02
	5.760000e+02
	5.770000e+02
	5.780000e+02
	5.790000e+02
	5.800000e+02
	5.810000e+02
	5.820000e+02
	5.830000e+02
	5.840000e+02
	5.850000e+02
	5.860000e+02
	5.870000e+02
	5.880000e+02
	5.890000e+02
	5.900000e+02
	5.910000e+02
	5.920000e+02
	5.930000e+02
	5.940000e+02
	5.950000e+02
	5.960000e+02
	5.970000e+02
	5.980000e+02
	5.990000e+02
	6.000000e+02
	6.010000e+02
	6.020000e+02
	6.030000e+02
	6.040000e+02
	6.050000e+02
	6.060000e+02
	6.070000e+02
	6.080000e+02
	6.090000e+02
	6.100000e+02
	6.110000e+02
	6.120000e+02
	6.130000e+02
	6.140000e+02
	6.150000e+02
	6.160000e+02
	6.170000e+02
	6.180000e+02
	6.190000e+02
	6.200000e+02
	6.210000e+02
	6.220000e+02
	6.230000e+02
	6.240000e+02
	6.250000e+02
	6.260000e+02
	6.270000e+02
	6.280000e+02
	6.290000e+02
	6.300000e+02
	6.310000e+02
	6.320000e+02
	6.330000e+02
	6.340000e+02
	6.350000e+02
	6.360000e+02
	6.370000e+02
	6.380000e+02
	6.390000e+02
	6.400000e+02
	6.410000e+02
	6.420000e+02
	6.430000e+02
	6.440000e+02
	6.450000e+02
	6.460000e+02
	6.470000e+02
VECTORS displacement float
	0.000000e+00	0.000000e+00	0.000000e+00
	0.000000e+00	0.000000e+00	0.000000e+00
	4.375205e-02	-1.985971e-02	0.000000e+00
	6.867174e-02	-4.431028e-02	0.000000e+00
	0.000000e+00	0.000000e+00	0.000000e+00
	2.830449e-02	-7.507884e-03	0.000000e+00
	0.000000e+00	0.000000e+00	0.000000e+00
	1.389506e-02	-1.397764e-03	0.000000e+00
	0.000000e+00	0.000000e+00	0.000000e+00
	1.168485e-05	4.839925e-04	0.000000e+00
	0.000000e+00	0.000000e+00	0.000000e+00
	-1.387335e-02	-1.388286e-03	0.000000e+00
	0.000000e+00	0.000000e+00	0.000000e+00
	-2.829181e-02	-7.490950e-03	0.000000e+00
	0.000000e+00	0.000000e+00	0.000000e+00
	-4.375422e-02	-1.984318e-02	0.000000e+00
	0.000000e+00	0.000000e+00	0.000000e+00
	-6.867216e-02	-4.429559e-02	0.000000e+00
	-1.333098e-01	-7.766383e-02	0.000000e+00
	-9.535535e-02	-5.486290e-02	0.000000e+00
	-1.978363e-01	-1.259856e-01	0.000000e+00
	-1.453434e-01	-1.027929e-01	0.000000e+00
	-2.625476e-01	-1.905501e-01	0.000000e+00
	-1.942195e-01	-1.675591e-01	0.000000e+00
	-3.267749e-01	-2.723430e-01	0.000000e+00
	-2.422089e-01	-2.495728e-01	0.000000e+00
	-3.902267e-01	-3.712759e-01	0.000000e+00
	-2.894097e-01	-3.488146e-01	0.000000e+00
	-4.527694e-01	-4.871236e-01	0.000000e+00
	-3.359046e-01	-4.650236e-01	0.000000e+00
	-5.143586e-01	-6.196161e-01	0.000000e+00
	-3.817201e-01	-5.978977e-01	0.000000e+00
	-5.749814e-01	-7.684841e-01	0.000000e+00
	-4.268711e-01	-7.471454e-01	0.000000e+00
	-6.346351e-01	-9.334645e-01	0.000000e+00
	-4.713357e-01	-9.124971e-01	0.000000e+00
	-6.933189e-01	-1.114296e+00	0.000000e+00
	-5.150911e-01	-1.093692e+00	0.000000e+00
	-7.510324e-01	-1.310719e+00	0.000000e+00
	-5.581251e-01	-1.290472e+00	0.000000e+00
	-8.077756e-01	-1.522472e+00	0.000000e+00
	-6.004341e-01	-1.502580e+00	0.000000e+00
	-8.635485e-01	-1.749295e+00	0.000000e+00
	-6.420177e-01	-1.729756e+00	0.000000e+00
	-9.183513e-01	-1.990929e+00	0.000000e+00
	-6.828767e-01	-1.971741e+00	0.000000e+00
	-9.721839e-01	-2.247112e+00	0.000000e+00
	-7.230116e-01	-2.228276e+00	0.000000e+00
	-1.025047e+00	-2.517586e+00	0.000000e+00
	-7.624229e-01	-2.499101e+00	0.000000e+00
	-1.076939e+00	-2.802090e+00	0.000000e+00
	-8.011110e-01	-2.783956e+00	0.000000e+00
	-1.127862e+00	-3.100364e+00	0.000000e+00
	-8.390757e-01	-3.082581e+00	0.000000e+00
	-1.177815e+00	-3.412150e+00	0.000000e+00
	-8.763174e-01	-3.394717e+00	0.000000e+00
	-1.226797e+00	-3.737186e+00	0.000000e+00
	-9.128358e-01	-3.720105e+00	0.000000e+00
	-1.274810e+00	-4.075214e+00	0.000000e+00
	-9.486311e-01	-4.058483e+00	0.000000e+00
	-1.321853e+00	-4.425973e+00	0.000000e+00
	-9.837033e-01	-4.409592e+00	0.000000e+00
	-1.367926e+00	-4.789204e+00	0.000000e+00
	-1.018052e+00	-4.773173e+00	0.000000e+00
	-1.413029e+00	-5.164646e+00	0.000000e+00
	-1.051678e+00	-5.148965e+00	0.000000e+00
	-1.457162e+00	-5.552040e+00	0.000000e+00
	-1.084581e+00	-5.536709e+00	0.000000e+00
	-1.500325e+00	-5.951126e+00	0.000000e+00
	-1.116760e+00	-5.936145e+00	0.000000e+00
	-1.542518e+00	-6.361645e+00	0.000000e+00
	-1.148217e+00	-6.347013e+00	0.000000e+00
	-1.583741e+00	-6.783335e+00	0.000000e+00
	-1.178950e+00	-6.769054e+00	0.000000e+00
	-1.623994e+00	-7.215939e+00	0.000000e+00
	-1.208960e+00	-7.202007e+00	0.000000e+00
	-1.663277e+00	-7.659195e+00	0.000000e+00
	-1.238247e+00	-7.645612e+00	0.000000e+00
	-1.701591e+00	-8.112844e+00	0.000000e+00
	-1.266811e+00	-8.099611e+00	0.000000e+00
	-1.738934e+00	-8.576626e+00	0.000000e+00
	-1.294652e+00	-8.563742e+00	0.000000e+00
	-1.775307e+00	-9.050282e+00	0.000000e+00
	-1.321770e+00	-9.037746e+00	0.000000e+00
	-1.810711e+00	-9.533551e+00	0.000000e+00
	-1.348164e+00	-9.521364e+00	0.000000e+00
	-1.845144e+00	-1.002617e+01	0.000000e+00
	-1.373835e+00	-1.001434e+01	0.000000e+00
	-1.878608e+00	-1.052789e+01	0.000000e+00
	-1.398783e+00	-1.051640e+01	0.000000e+00
	-1.911101e+00	-1.103844e+01	0.000000e+00
	-1.423008e+00	-1.102730e+01	0.000000e+00
	-1.942625e+00	-1.155756e+01	0.000000e+00
	-1.446510e+00	-1.154677e+01	0.000000e+00
	-1.973178e+00	-1.208500e+01	0.000000e+00
	-1.469289e+00	-1.207456e+01	0.000000e+00
	-2.002762e+00	-1.262050e+01	0.000000e+00
	-1.491344e+00	-1.261040e+01	0.000000e+00
	-2.031376e+00	-1.316379e+01	0.000000e+00
	-1.512677e+00	-1.315404e+01	0.000000e+00
	-2.059019e+00	-1.371461e+01	0.000000e+00
	-1.533286e+00	-1.370521e+01	0.000000e+00
	-2.085693e+00	-1.427271e+01	0.000000e+00
	-1.553172e+00	-1.426365e+01	0.000000e+00
	-2.111397e+00	-1.483782e+01	0.000000e+00
	-1.572335e+00	-1.482912e+01	0.000000e+00
	-2.136131e+00	-1.540969e+01	0.000000e+00
	-1.590775e+00	-1.540133e+01	0.000000e+00
	-2.159895e+00	-1.598805e+01	0.000000e+00
	-1.608492e+00	-1.598004e+01	0.000000e+00
	-2.182689e+00	-1.657265e+01	0.000000e+00
	-1.625485e+00	-1.656499e+01	0.000000e+00
	-2.204513e+00	-1.716323e+01	0.000000e+00
	-1.641756e+00	-1.715591e+01	0.000000e+00
	-2.225367e+00	-1.775952e+01	0.000000e+00
	-1.657303e+00	-1.775255e+01	0.000000e+00
	-2.245251e+00	-1.836127e+01	0.000000e+00
	-1.672127e+00	-1.835465e+01	0.000000e+00
	-2.264165e+00	-1.896821e+01	0.000000e+00
	-1.686228e+00	-1.896194e+01	0.000000e+00
	-2.282109e+00	-1.958009e+01	0.000000e+00
	-1.699606e+00	-1.957417e+01	0.000000e+00
	-2.299084e+00	-2.019665e+01	0.000000e+00
	-1.712261e+00	-2.019107e+01	0.000000e+00
	-2.315088e+00	-2.081763e+01	0.000000e+00
	-1.724193e+00	-2.081239e+01	0.000000e+00
	-2.330124e+00	-2.144276e+01	0.000000e+00
	-1.735402e+00	-2.143787e+01	0.000000e+00
	-2.344191e+00	-2.207179e+01	0.000000e+00
	-1.745888e+00	-2.206725e+01	0.000000e+00
	-2.357290e+00	-2.270446e+01	0.000000e+00
	-1.755652e+00	-2.270026e+01	0.000000e+00
	-2.369422e+00	-2.334051e+01	0.000000e+00
	-1.764694e+00	-2.333666e+01	0.000000e+00
	-2.380586e+00	-2.397969e+01	0.000000e+00
	-1.773012e+00	-2.397618e+01	0.000000e+00
	-2.390779e+00	-2.462173e+01	0.000000e+00
	-1.780607e+00	-2.461858e+01	0.000000e+00
	-2.399997e+00	-2.526640e+01	0.000000e+00
	-1.787480e+00	-2.526360e+01	0.000000e+00
	-2.408222e+00	-2.591344e+01	0.000000e+00
	-1.793656e+00	-2.591099e+01	0.000000e+00
	-2.415424e+00	-2.656258e+01	0.000000e+00
	-1.799043e+00	-2.656050e+01	0.000000e+00
	-2.421550e+00	-2.721355e+01	0.000000e+00
	-1.803956e+00	-2.721186e+01	0.000000e+00
	-2.426526e+00	-2.786604e+01	0.000000e+00
	-1.808761e+00	-2.786474e+01	0.000000e+00
	-2.430263e+00	-2.851963e+01	0.000000e+00
	-1.813412e+00	-2.851874e+01	0.000000e+00
	-2.432709e+00	-2.917382e+01	0.000000e+00
	-1.817512e+00	-2.917335e+01	0.000000e+00
	-2.433939e+00	-2.982799e+01	0.000000e+00
	-1.820756e+00	-2.982789e+01	0.000000e+00
	-2.434270e+00	-3.048159e+01	0.000000e+00
	-1.823150e+00	-3.048171e+01	0.000000e+00
	-2.434277e+00	-3.113448e+01	0.000000e+00
	-1.825116e+00	-3.113448e+01	0.000000e+00
	-1.216576e+00	-3.113474e+01	0.000000e+00
	-1.213278e+00	-3.048217e+01	0.000000e+00
	-6.086784e-01	-3.113583e+01	0.000000e+00
	-6.050558e-01	-3.048321e+01	0.000000e+00
	-9.947840e-04	-3.113828e+01	0.000000e+00
	1.882378e-03	-3.048497e+01	0.000000e+00
	6.071594e-01	-3.114263e+01	0.000000e+00
	6.085453e-01	-3.048750e+01	0.000000e+00
	1.216870e+00	-3.114978e+01	0.000000e+00
	1.216483e+00	-3.049052e+01	0.000000e+00
	1.830475e+00	-3.116158e+01	0.000000e+00
	1.828441e+00	-3.049274e+01	0.000000e+00
	2.459164e+00	-3.118154e+01	0.000000e+00
	2.450399e+00	-3.049263e+01	0.000000e+00
	2.443491e+00	-2.983142e+01	0.000000e+00
	1.829463e+00	-2.982995e+01	0.000000e+00
	2.437923e+00	-2.917387e+01	0.000000e+00
	1.828511e+00	-2.917265e+01	0.000000e+00
	2.432931e+00	-2.851869e+01	0.000000e+00
	1.826465e+00	-2.851730e+01	0.000000e+00
	2.427743e+00	-2.786498e+01	0.000000e+00
	1.823479e+00	-2.786340e+01	0.000000e+00
	2.422007e+00	-2.721271e+01	0.000000e+00
	1.819656e+00	-2.721087e+01	0.000000e+00
	2.415522e+00	-2.656201e+01	0.000000e+00
	1.814957e+00	-2.655986e+01	0.000000e+00
	2.408180e+00	-2.591309e+01	0.000000e+00
	1.809501e+00	-2.591061e+01	0.000000e+00
	2.399919e+00	-2.526621e+01	0.000000e+00
	1.803321e+00	-2.526339e+01	0.000000e+00
	2.390708e+00	-2.462164e+01	0.000000e+00
	1.796411e+00	-2.461848e+01	0.000000e+00
	2.380534e+00	-2.397965e+01	0.000000e+00
	1.788766e+00	-2.397615e+01	0.000000e+00
	2.369389e+00	-2.334050e+01	0.000000e+00
	1.780386e+00	-2.333666e+01	0.000000e+00
	2.357271e+00	-2.270446e+01	0.000000e+00
	1.771272e+00	-2.270028e+01	0.000000e+00
	2.344182e+00	-2.207179e+01	0.000000e+00
	1.761427e+00	-2.206727e+01	0.000000e+00
	2.330120e+00	-2.144276e+01	0.000000e+00
	1.750850e+00	-2.143791e+01	0.000000e+00
	2.315087e+00	-2.081763e+01	0.000000e+00
	1.739543e+00	-2.081243e+01	0.000000e+00
	2.299083e+00	-2.019665e+01	0.000000e+00
	1.727506e+00	-2.019112e+01	0.000000e+00
	2.282109e+00	-1.958010e+01	0.000000e+00
	1.714739e+00	-1.957422e+01	0.000000e+00
	2.264165e+00	-1.896821e+01	0.000000e+00
	1.701242e+00	-1.896200e+01	0.000000e+00
	2.245251e+00	-1.836127e+01	0.000000e+00
	1.687016e+00	-1.835472e+01	0.000000e+00
	2.225367e+00	-1.775952e+01	0.000000e+00
	1.672060e+00	-1.775263e+01	0.000000e+00
	2.204513e+00	-1.716323e+01	0.000000e+00
	1.656374e+00	-1.715600e+01	0.000000e+00
	2.182689e+00	-1.657265e+01	0.000000e+00
	1.639959e+00	-1.656509e+01	0.000000e+00
	2.159895e+00	-1.598805e+01	0.000000e+00
	1.622815e+00	-1.598015e+01	0.000000e+00
	2.136131e+00	-1.540969e+01	0.000000e+00
	1.604941e+00	-1.540144e+01	0.000000e+00
	2.111397e+00	-1.483782e+01	0.000000e+00
	1.586337e+00	-1.482924e+01	0.000000e+00
	2.085693e+00	-1.427271e+01	0.000000e+00
	1.567004e+00	-1.426378e+01	0.000000e+00
	2.059020e+00	-1.371461e+01	0.000000e+00
	1.546941e+00	-1.370535e+01	0.000000e+00
	2.031376e+00	-1.316379e+01	0.000000e+00
	1.526148e+00	-1.315418e+01	0.000000e+00
	2.002762e+00	-1.262050e+01	0.000000e+00
	1.504626e+00	-1.261056e+01	0.000000e+00
	1.973178e+00	-1.208500e+01	0.000000e+00
	1.482375e+00	-1.207472e+01	0.000000e+00
	1.942625e+00	-1.155756e+01	0.000000e+00
	1.459394e+00	-1.154695e+01	0.000000e+00
	1.911101e+00	-1.103844e+01	0.000000e+00
	1.435683e+00	-1.102748e+01	0.000000e+00
	1.878608e+00	-1.052789e+01	0.000000e+00
	1.411243e+00	-1.051659e+01	0.000000e+00
	1.845144e+00	-1.002617e+01	0.000000e+00